<?xml version="1.0"?>
<VTKFile type="UnstructuredGrid"  version="0.1"  >
<UnstructuredGrid>
<Piece  NumberOfPoints="204" NumberOfCells="214">
<Points>
<DataArray  type="Float64"  NumberOfComponents="3"  format="ascii">-0.5 0.6 0  1 0 0  0 1 0  1 0 0  1 0 0  0 1 0  1 0 0  1 0 0  0 1 0  1 0 0  1 0 0  -0.5864545423573994 1.006736643075801 0  -0.8308693936411428 1.343144825477395 0  -1.190983005625054 1.551056516295154 0  -1.604528463267656 1.594521895368273 0  -2.000000000000003 1.466025403784437 0  -2.30901699437495 1.187785252292469 0  -2.478147600733807 0.8079116908177533 0  -2.478147600733804 0.3920883091822331 0  -2.309016994374943 0.01221474770752051 0  -1.999999999999993 -0.2660254037844424 0  -1.604528463267647 -0.394521895368274 0  -1.190983005625049 -0.3510565162951523 0  -0.8308693936411395 -0.1431448254773923 0  -0.5864545423573987 0.1932633569242007 0  0.9135454576426006 0.4067366430758008 0  0.6691306063588572 0.7431448254773951 0  0.309016994374946 0.9510565162951541 0  -0.1045284632676555 0.9945218953682731 0  -0.5000000000000024 0.8660254037844372 0  -0.8090169943749502 0.5877852522924693 0  -0.9781476007338069 0.2079116908177532 0  -0.978147600733804 -0.2079116908177669 0  -0.8090169943749428 -0.5877852522924795 0  -0.4999999999999934 -0.8660254037844424 0  -0.1045284632676472 -0.994521895368274 0  0.3090169943749514 -0.9510565162951523 0  0.6691306063588605 -0.7431448254773922 0  0.9135454576426013 -0.4067366430757993 0  0.9135454576426006 0.4067366430758008 0  0.6691306063588572 0.7431448254773951 0  0.309016994374946 0.9510565162951541 0  -0.1045284632676555 0.9945218953682731 0  -0.5000000000000024 0.8660254037844372 0  -0.8090169943749502 0.5877852522924693 0  -0.9781476007338069 0.2079116908177532 0  -0.978147600733804 -0.2079116908177669 0  -0.8090169943749428 -0.5877852522924795 0  -0.4999999999999934 -0.8660254037844424 0  -0.1045284632676472 -0.994521895368274 0  0.3090169943749514 -0.9510565162951523 0  0.6691306063588605 -0.7431448254773922 0  0.9135454576426013 -0.4067366430757993 0  0.9135454576426006 0.4067366430758008 0  0.6691306063588572 0.7431448254773951 0  0.309016994374946 0.9510565162951541 0  -0.1045284632676555 0.9945218953682731 0  -0.5000000000000024 0.8660254037844372 0  -0.8090169943749502 0.5877852522924693 0  -0.9781476007338069 0.2079116908177532 0  -0.978147600733804 -0.2079116908177669 0  -0.8090169943749428 -0.5877852522924795 0  -0.4999999999999934 -0.8660254037844424 0  -0.1045284632676472 -0.994521895368274 0  0.3090169943749514 -0.9510565162951523 0  0.6691306063588605 -0.7431448254773922 0  0.9135454576426013 -0.4067366430757993 0  0.9135454576426006 0.4067366430758008 0  0.6691306063588572 0.7431448254773951 0  0.309016994374946 0.9510565162951541 0  -0.1045284632676555 0.9945218953682731 0  -0.5000000000000024 0.8660254037844372 0  -0.8090169943749502 0.5877852522924693 0  -0.9781476007338069 0.2079116908177532 0  -0.978147600733804 -0.2079116908177669 0  -0.8090169943749428 -0.5877852522924795 0  -0.4999999999999934 -0.8660254037844424 0  -0.1045284632676472 -0.994521895368274 0  0.3090169943749514 -0.9510565162951523 0  0.6691306063588605 -0.7431448254773922 0  0.9135454576426013 -0.4067366430757993 0  0.9135454576426006 0.4067366430758008 0  0.6691306063588572 0.7431448254773951 0  0.309016994374946 0.9510565162951541 0  -0.1045284632676555 0.9945218953682731 0  -0.5000000000000024 0.8660254037844372 0  -0.8090169943749502 0.5877852522924693 0  -0.9781476007338069 0.2079116908177532 0  -0.978147600733804 -0.2079116908177669 0  -0.8090169943749428 -0.5877852522924795 0  -0.4999999999999934 -0.8660254037844424 0  -0.1045284632676472 -0.994521895368274 0  0.3090169943749514 -0.9510565162951523 0  0.6691306063588605 -0.7431448254773922 0  0.9135454576426013 -0.4067366430757993 0  0.9135454576426006 0.4067366430758008 0  0.6691306063588572 0.7431448254773951 0  0.309016994374946 0.9510565162951541 0  -0.1045284632676555 0.9945218953682731 0  -0.5000000000000024 0.8660254037844372 0  -0.8090169943749502 0.5877852522924693 0  -0.9781476007338069 0.2079116908177532 0  -0.978147600733804 -0.2079116908177669 0  -0.8090169943749428 -0.5877852522924795 0  -0.4999999999999934 -0.8660254037844424 0  -0.1045284632676472 -0.994521895368274 0  0.3090169943749514 -0.9510565162951523 0  0.6691306063588605 -0.7431448254773922 0  0.9135454576426013 -0.4067366430757993 0  0.9135454576426006 0.4067366430758008 0  0.6691306063588572 0.7431448254773951 0  0.309016994374946 0.9510565162951541 0  -0.1045284632676555 0.9945218953682731 0  -0.5000000000000024 0.8660254037844372 0  -0.8090169943749502 0.5877852522924693 0  -0.9781476007338069 0.2079116908177532 0  -0.978147600733804 -0.2079116908177669 0  -0.8090169943749428 -0.5877852522924795 0  -0.4999999999999934 -0.8660254037844424 0  -0.1045284632676472 -0.994521895368274 0  0.3090169943749514 -0.9510565162951523 0  0.6691306063588605 -0.7431448254773922 0  0.9135454576426013 -0.4067366430757993 0  0.5000000000000023 -0.3632712640026806 0  -0.3638328162572356 0.41493801813333 0  -0.4135454576425978 -0.4592887607086421 0  0.5324914823629274 0.3580411732086115 0  0.06460214309120822 -0.6146483338935612 0  -0.618033988749894 -4.313440226875569e-15 0  0.05128415458031469 0.6254882656214983 0  0.3856874359562556 -0.6680302349171965 0  0.1224435067852159 -0.1865989343745295 0  0.4430618480901174 -0.001104126620017196 0  0.1324465795134174 0.2678436224519039 0  -0.2105636931313424 -0.05687169997030433 0  0.7163778904386077 0.12846880955599 0  -0.6922578500289717 0.302658740310887 0  -0.2309093258014966 -0.7106658305995199 0  -0.2292692812361447 0.7252433957268846 0  -0.7046860103753095 -0.3137464259547232 0  0.3736191374661514 0.6471273287714364 0  -0.1228599824369603 -0.3781241453238839 0  0.7188575665058267 -0.1400015692679531 0  0.5000000000000023 -0.3632712640026806 0  -0.3638328162572356 0.41493801813333 0  -0.4135454576425978 -0.4592887607086421 0  0.5324914823629273 0.3580411732086116 0  0.06460214309120822 -0.6146483338935612 0  -0.618033988749894 -4.313440226875569e-15 0  0.05128415458031468 0.6254882656214983 0  0.3856874359562556 -0.6680302349171965 0  0.1224435067852159 -0.1865989343745295 0  0.4430618480901174 -0.001104126620017183 0  0.1324465795134174 0.267843622451904 0  -0.2105636931313424 -0.05687169997030433 0  0.7163778904386077 0.12846880955599 0  -0.6922578500289717 0.302658740310887 0  -0.2309093258014966 -0.7106658305995199 0  -0.7046860103753095 -0.3137464259547232 0  -0.2292692812361447 0.7252433957268846 0  0.3736191374661512 0.6471273287714367 0  -0.1228599824369603 -0.3781241453238839 0  0.7188575665058267 -0.1400015692679531 0  0.5000000000000023 -0.3632712640026806 0  -0.3638328162572356 0.4149380181333299 0  -0.4135454576425978 -0.4592887607086421 0  0.5324914823629274 0.3580411732086115 0  0.06460214309120822 -0.6146483338935612 0  -0.618033988749894 -4.313440226875569e-15 0  0.05128415458031469 0.6254882656214983 0  0.3856874359562556 -0.6680302349171965 0  0.1224435067852159 -0.1865989343745295 0  0.4430618480901174 -0.001104126620017268 0  0.1324465795134174 0.2678436224519038 0  -0.2105636931313424 -0.05687169997030434 0  0.7163778904386077 0.1284688095559899 0  -0.6922578500289717 0.302658740310887 0  -0.2309093258014966 -0.7106658305995199 0  -0.2292692812361447 0.7252433957268846 0  -0.7046860103753095 -0.3137464259547232 0  0.3736191374661514 0.6471273287714364 0  -0.1228599824369603 -0.3781241453238838 0  0.7188575665058267 -0.1400015692679532 0  -0.1887619959974153 -0.6073713836454848 0  0.3090169943749466 0.5352331346596352 0  -0.5646021430912048 0.2513770698908755 0  0.5084224291472432 -0.3727583812307091 0  -0.5646021430912028 -0.2513770698908835 0  0.6045284632676534 0.1284964915838351 0  -0.1909830056250538 0.587785252292472 0  0.6240553804110144 0.4534027736991665 0  0.1570254181635269 0.09659149117639793 0  0.3639677422075976 -0.6438859277211521 0  0.1280754258413369 -0.3649486587660769 0  -0.2035591578434095 -0.2462260755050749 0  -0.2272024084052577 0.1607114309504269 0  0.09007005227667182 -0.7274366881722073 0  0.7309093258015025 -0.1553595731849211 0  -0.482940254468435 -0.5394355502750497 0  -0.4702577930709246 0.5091852748628384 0  0.07810766857344487 0.7431448254773944 0  -0.7713748719125045 -5.408228019440532e-15 0  0.4077201607262064 -0.1086486962126507 0  0.033208851736623 0.4103480964455277 0  </DataArray>
</Points>
<Cells>
<DataArray  type="UInt32"  Name="connectivity"  format="ascii">124 129 133  124 133 134  125 128 134  123 127 131  124 128 134  123 127 130  125 128 139  124 128 136  124 129 138  126 133 140  125 134 141  129 133 140  29 30 124  25 26 126  31 32 128  27 28 129  33 34 125  37 38 123  35 36 127  126 132 133  123 131 132  131 133 134  131 132 133  127 131 141  131 134 141  1 25 135  25 126 135  32 128 139  36 37 130  29 124 138  26 126 140  30 124 136  27 129 140  34 35 137  34 125 137  32 33 139  30 31 136  26 27 140  28 29 138  31 128 136  28 129 138  37 123 130  33 125 139  36 127 130  35 127 137  1 38 142  38 123 142  123 132 142  126 132 135  125 137 141  127 137 141  132 135 142  1 135 142  144 149 153  144 153 154  145 148 154  143 147 151  144 148 154  143 147 150  145 148 158  144 148 156  144 149 159  146 153 160  145 154 161  149 153 160  57 58 144  53 54 146  59 60 148  55 56 149  61 62 145  65 66 143  63 64 147  146 152 153  143 151 152  151 153 154  151 152 153  147 151 161  151 154 161  4 53 155  53 146 155  60 148 158  64 65 150  57 144 159  58 144 156  54 146 160  55 149 160  62 63 157  62 145 157  60 61 158  58 59 156  56 57 159  59 148 156  54 55 160  56 149 159  65 143 150  61 145 158  64 147 150  63 147 157  4 66 162  66 143 162  143 152 162  146 152 155  145 157 161  147 157 161  152 155 162  4 155 162  164 169 173  164 173 174  165 168 174  163 167 171  164 168 174  163 167 170  165 168 179  164 168 176  164 169 178  166 173 180  165 174 181  169 173 180  85 86 164  81 82 166  87 88 168  83 84 169  89 90 165  93 94 163  91 92 167  166 172 173  163 171 172  171 173 174  171 172 173  167 171 181  171 174 181  7 81 175  81 166 175  88 168 179  92 93 170  85 164 178  82 166 180  86 164 176  83 169 180  90 91 177  90 165 177  88 89 179  86 87 176  82 83 180  84 85 178  87 168 176  84 169 178  93 163 170  89 165 179  92 167 170  91 167 177  7 94 182  94 163 182  163 172 182  166 172 175  167 177 181  165 177 181  172 175 182  7 175 182  185 187 195  191 193 194  184 188 191  187 194 195  184 188 190  185 187 201  191 194 195  189 195 199  185 195 199  191 193 202  10 109 188  110 111 184  114 115 185  116 117 187  118 119 183  112 113 189  121 122 186  189 195 203  188 191 202  184 191 203  183 194 198  187 194 198  183 193 194  186 193 202  186 192 193  192 193 196  183 193 196  10 188 197  120 121 192  10 122 197  109 110 190  113 114 199  117 187 198  114 185 199  115 116 201  115 185 201  112 189 200  110 184 190  111 112 200  111 184 200  117 118 198  109 188 190  113 189 199  119 120 196  119 183 196  122 186 197  116 187 201  118 183 198  121 186 192  191 195 203  188 197 202  186 197 202  189 200 203  184 200 203  120 192 196  </DataArray>
<DataArray  type="UInt32"  Name="offsets"  format="ascii">3 6 9 12 15 18 21 24 27 30 33 36 39 42 45 48 51 54 57 60 63 66 69 72 75 78 81 84 87 90 93 96 99 102 105 108 111 114 117 120 123 126 129 132 135 138 141 144 147 150 153 156 159 162 165 168 171 174 177 180 183 186 189 192 195 198 201 204 207 210 213 216 219 222 225 228 231 234 237 240 243 246 249 252 255 258 261 264 267 270 273 276 279 282 285 288 291 294 297 300 303 306 309 312 315 318 321 324 327 330 333 336 339 342 345 348 351 354 357 360 363 366 369 372 375 378 381 384 387 390 393 396 399 402 405 408 411 414 417 420 423 426 429 432 435 438 441 444 447 450 453 456 459 462 465 468 471 474 477 480 483 486 489 492 495 498 501 504 507 510 513 516 519 522 525 528 531 534 537 540 543 546 549 552 555 558 561 564 567 570 573 576 579 582 585 588 591 594 597 600 603 606 609 612 615 618 621 624 627 630 633 636 639 642 </DataArray>
<DataArray  type="UInt8"  Name="types"  format="ascii">5 5 5 5 5 5 5 5 5 5 5 5 5 5 5 5 5 5 5 5 5 5 5 5 5 5 5 5 5 5 5 5 5 5 5 5 5 5 5 5 5 5 5 5 5 5 5 5 5 5 5 5 5 5 5 5 5 5 5 5 5 5 5 5 5 5 5 5 5 5 5 5 5 5 5 5 5 5 5 5 5 5 5 5 5 5 5 5 5 5 5 5 5 5 5 5 5 5 5 5 5 5 5 5 5 5 5 5 5 5 5 5 5 5 5 5 5 5 5 5 5 5 5 5 5 5 5 5 5 5 5 5 5 5 5 5 5 5 5 5 5 5 5 5 5 5 5 5 5 5 5 5 5 5 5 5 5 5 5 5 5 5 5 5 5 5 5 5 5 5 5 5 5 5 5 5 5 5 5 5 5 5 5 5 5 5 5 5 5 5 5 5 5 5 5 5 5 5 5 5 5 5 5 5 5 5 5 5 5 5 5 5 5 5 </DataArray>
</Cells>
<PointData  Scalars="f_9-1"> 
<DataArray  type="Float64"  Name="f_9-1"  format="ascii">0.0000000000000000e+00  0.0000000000000000e+00  0.0000000000000000e+00  0.0000000000000000e+00  0.0000000000000000e+00  0.0000000000000000e+00  0.0000000000000000e+00  0.0000000000000000e+00  0.0000000000000000e+00  0.0000000000000000e+00  0.0000000000000000e+00  0.0000000000000000e+00  0.0000000000000000e+00  0.0000000000000000e+00  0.0000000000000000e+00  0.0000000000000000e+00  0.0000000000000000e+00  0.0000000000000000e+00  0.0000000000000000e+00  0.0000000000000000e+00  0.0000000000000000e+00  0.0000000000000000e+00  0.0000000000000000e+00  0.0000000000000000e+00  0.0000000000000000e+00  4.0673664307580082e-01  7.4314482547739513e-01  9.5105651629515409e-01  9.9452189536827307e-01  8.6602540378443715e-01  5.8778525229246925e-01  2.0791169081775321e-01  -2.0791169081776689e-01  -5.8778525229247947e-01  -8.6602540378444237e-01  -9.9452189536827396e-01  -9.5105651629515231e-01  -7.4314482547739225e-01  -4.0673664307579932e-01  0.0000000000000000e+00  0.0000000000000000e+00  0.0000000000000000e+00  0.0000000000000000e+00  0.0000000000000000e+00  0.0000000000000000e+00  0.0000000000000000e+00  0.0000000000000000e+00  0.0000000000000000e+00  0.0000000000000000e+00  0.0000000000000000e+00  0.0000000000000000e+00  0.0000000000000000e+00  0.0000000000000000e+00  4.0673664307580082e-01  7.4314482547739513e-01  9.5105651629515409e-01  9.9452189536827307e-01  8.6602540378443715e-01  5.8778525229246925e-01  2.0791169081775321e-01  -2.0791169081776689e-01  -5.8778525229247947e-01  -8.6602540378444237e-01  -9.9452189536827396e-01  -9.5105651629515231e-01  -7.4314482547739225e-01  -4.0673664307579932e-01  0.0000000000000000e+00  0.0000000000000000e+00  0.0000000000000000e+00  0.0000000000000000e+00  0.0000000000000000e+00  0.0000000000000000e+00  0.0000000000000000e+00  0.0000000000000000e+00  0.0000000000000000e+00  0.0000000000000000e+00  0.0000000000000000e+00  0.0000000000000000e+00  0.0000000000000000e+00  0.0000000000000000e+00  4.0673664307580082e-01  7.4314482547739513e-01  9.5105651629515409e-01  9.9452189536827307e-01  8.6602540378443715e-01  5.8778525229246925e-01  2.0791169081775321e-01  -2.0791169081776689e-01  -5.8778525229247947e-01  -8.6602540378444237e-01  -9.9452189536827396e-01  -9.5105651629515231e-01  -7.4314482547739225e-01  -4.0673664307579932e-01  0.0000000000000000e+00  0.0000000000000000e+00  0.0000000000000000e+00  0.0000000000000000e+00  0.0000000000000000e+00  0.0000000000000000e+00  0.0000000000000000e+00  0.0000000000000000e+00  0.0000000000000000e+00  0.0000000000000000e+00  0.0000000000000000e+00  0.0000000000000000e+00  0.0000000000000000e+00  0.0000000000000000e+00  4.0673664307580082e-01  7.4314482547739513e-01  9.5105651629515409e-01  9.9452189536827307e-01  8.6602540378443715e-01  5.8778525229246925e-01  2.0791169081775321e-01  -2.0791169081776689e-01  -5.8778525229247947e-01  -8.6602540378444237e-01  -9.9452189536827396e-01  -9.5105651629515231e-01  -7.4314482547739225e-01  -4.0673664307579932e-01  -1.0065863593618312e+00  4.6145149761848842e-01  -5.2213401013762128e-01  9.6504785715525887e-01  -8.6611065743330007e-01  -1.0304028601913035e-02  8.2493309363855394e-01  -9.5987504804833912e-01  -3.9908936373140697e-01  -6.2799037650454650e-02  4.3151621180832272e-01  -9.9112263337558210e-02  3.3242872789747435e-01  3.1141725991080405e-01  -7.9717514947629409e-01  7.9604560065070007e-01  -3.3196363264627105e-01  9.6360910838433822e-01  -5.1583963831939494e-01  -3.8350877669762251e-01  -1.0065863593622131e+00  4.6145149761780785e-01  -5.2213401013817551e-01  9.6504785715325769e-01  -8.6611065743414439e-01  -1.0304028602407374e-02  8.2493309363773237e-01  -9.5987504804806223e-01  -3.9908936373392301e-01  -6.2799037654345885e-02  4.3151621180580058e-01  -9.9112263338897388e-02  3.3242872789611183e-01  3.1141725991051200e-01  -7.9717514947667389e-01  -3.3196363264653339e-01  7.9604560065035190e-01  9.6360910838352698e-01  -5.1583963832061364e-01  -3.8350877669847883e-01  -1.0065863593622097e+00  4.6145149761781412e-01  -5.2213401013817018e-01  9.6504785715327579e-01  -8.6611065743413584e-01  -1.0304028602402739e-02  8.2493309363773981e-01  -9.5987504804806512e-01  -3.9908936373389842e-01  -6.2799037654309886e-02  4.3151621180582278e-01  -9.9112263338884760e-02  3.3242872789612476e-01  3.1141725991051478e-01  -7.9717514947667012e-01  7.9604560065035512e-01  -3.3196363264653084e-01  9.6360910838353409e-01  -5.1583963832060165e-01  -3.8350877669847155e-01  -9.5744865566765436e-01  6.0279940673312249e-01  4.9319720572721309e-01  -4.2245204447020540e-01  -6.2329563702666091e-01  1.2742189601888526e-01  9.2120118836226683e-01  4.6993386719570507e-01  1.0612196224190276e-01  -7.1221965539581289e-01  -5.3131200991404859e-01  -6.3688284088978986e-01  3.1832170415174776e-01  -8.6770004450722771e-01  -1.7012225852418064e-01  -9.2775496163748439e-01  9.4289839195901781e-01  8.5632835071719049e-01  -3.4721597112297553e-02  -1.4617607236956190e-01  5.5766396201572921e-01  </DataArray> 
</PointData> 
</Piece>
</UnstructuredGrid>
</VTKFile>